<?xml version="1.0" encoding="UTF-8"?>

<!-- generated on 2024-10-19 09:19:58 by Eclipse SUMO GUI Version 1.19.0
<configuration xmlns:xsi="http://www.w3.org/2001/XMLSchema-instance" xsi:noNamespaceSchemaLocation="http://sumo.dlr.de/xsd/sumoConfiguration.xsd">

    <input>
        <net-file value="net_file.net.xml"/>
        <route-files value="routes.rou.xml"/>
    </input>

    <output>
        <netstate-dump value="output/netstate-dump.xml"/>
        <summary-output value="output/summary.xml"/>
    </output>

    <time>
        <begin value="0"/>
        <end value="15"/>
        <step-length value="0.01"/>
    </time>

    <traci_server>
        <remote-port value="8779"/>
    </traci_server>

</configuration>
-->

<netstate xmlns:xsi="http://www.w3.org/2001/XMLSchema-instance" xsi:noNamespaceSchemaLocation="http://sumo.dlr.de/xsd/netstate_file.xsd">
    <timestep time="0.00">
        <edge id="-E0">
            <lane id="-E0_0"/>
            <lane id="-E0_1"/>
            <lane id="-E0_2">
                <vehicle id="vehicle1" pos="5.10" speed="10.00"/>
            </lane>
        </edge>
    </timestep>
    <timestep time="0.01">
        <edge id="-E0">
            <lane id="-E0_0"/>
            <lane id="-E0_1"/>
            <lane id="-E0_2">
                <vehicle id="vehicle1" pos="5.20" speed="10.00"/>
            </lane>
        </edge>
    </timestep>
    <timestep time="0.02">
        <edge id="-E0">
            <lane id="-E0_0"/>
            <lane id="-E0_1"/>
            <lane id="-E0_2">
                <vehicle id="vehicle1" pos="5.30" speed="10.00"/>
            </lane>
        </edge>
    </timestep>
    <timestep time="0.03">
        <edge id="-E0">
            <lane id="-E0_0"/>
            <lane id="-E0_1"/>
            <lane id="-E0_2">
                <vehicle id="vehicle1" pos="5.40" speed="10.00"/>
            </lane>
        </edge>
    </timestep>
    <timestep time="0.04">
        <edge id="-E0">
            <lane id="-E0_0"/>
            <lane id="-E0_1"/>
            <lane id="-E0_2">
                <vehicle id="vehicle1" pos="5.50" speed="10.00"/>
            </lane>
        </edge>
    </timestep>
    <timestep time="0.05">
        <edge id="-E0">
            <lane id="-E0_0"/>
            <lane id="-E0_1"/>
            <lane id="-E0_2">
                <vehicle id="vehicle1" pos="5.60" speed="10.00"/>
            </lane>
        </edge>
    </timestep>
    <timestep time="0.06">
        <edge id="-E0">
            <lane id="-E0_0"/>
            <lane id="-E0_1"/>
            <lane id="-E0_2">
                <vehicle id="vehicle1" pos="5.70" speed="10.00"/>
            </lane>
        </edge>
    </timestep>
    <timestep time="0.07">
        <edge id="-E0">
            <lane id="-E0_0"/>
            <lane id="-E0_1"/>
            <lane id="-E0_2">
                <vehicle id="vehicle1" pos="5.80" speed="10.00"/>
            </lane>
        </edge>
    </timestep>
    <timestep time="0.08">
        <edge id="-E0">
            <lane id="-E0_0"/>
            <lane id="-E0_1"/>
            <lane id="-E0_2">
                <vehicle id="vehicle1" pos="5.90" speed="10.00"/>
            </lane>
        </edge>
    </timestep>
    <timestep time="0.09">
        <edge id="-E0">
            <lane id="-E0_0"/>
            <lane id="-E0_1"/>
            <lane id="-E0_2">
                <vehicle id="vehicle1" pos="6.00" speed="10.00"/>
            </lane>
        </edge>
    </timestep>
    <timestep time="0.10">
        <edge id="-E0">
            <lane id="-E0_0"/>
            <lane id="-E0_1"/>
            <lane id="-E0_2">
                <vehicle id="vehicle1" pos="6.10" speed="10.00"/>
            </lane>
        </edge>
    </timestep>
    <timestep time="0.11">
        <edge id="-E0">
            <lane id="-E0_0"/>
            <lane id="-E0_1"/>
            <lane id="-E0_2">
                <vehicle id="vehicle1" pos="6.20" speed="10.00"/>
            </lane>
        </edge>
    </timestep>
    <timestep time="0.12">
        <edge id="-E0">
            <lane id="-E0_0"/>
            <lane id="-E0_1"/>
            <lane id="-E0_2">
                <vehicle id="vehicle1" pos="6.30" speed="10.00"/>
            </lane>
        </edge>
    </timestep>
    <timestep time="0.13">
        <edge id="-E0">
            <lane id="-E0_0"/>
            <lane id="-E0_1"/>
            <lane id="-E0_2">
                <vehicle id="vehicle1" pos="6.40" speed="10.00"/>
            </lane>
        </edge>
    </timestep>
    <timestep time="0.14">
        <edge id="-E0">
            <lane id="-E0_0"/>
            <lane id="-E0_1"/>
            <lane id="-E0_2">
                <vehicle id="vehicle1" pos="6.50" speed="10.00"/>
            </lane>
        </edge>
    </timestep>
    <timestep time="0.15">
        <edge id="-E0">
            <lane id="-E0_0"/>
            <lane id="-E0_1"/>
            <lane id="-E0_2">
                <vehicle id="vehicle1" pos="6.60" speed="10.00"/>
            </lane>
        </edge>
    </timestep>
    <timestep time="0.16">
        <edge id="-E0">
            <lane id="-E0_0"/>
            <lane id="-E0_1"/>
            <lane id="-E0_2">
                <vehicle id="vehicle1" pos="6.70" speed="10.00"/>
            </lane>
        </edge>
    </timestep>
    <timestep time="0.17">
        <edge id="-E0">
            <lane id="-E0_0"/>
            <lane id="-E0_1"/>
            <lane id="-E0_2">
                <vehicle id="vehicle1" pos="6.80" speed="10.00"/>
            </lane>
        </edge>
    </timestep>
    <timestep time="0.18">
        <edge id="-E0">
            <lane id="-E0_0"/>
            <lane id="-E0_1"/>
            <lane id="-E0_2">
                <vehicle id="vehicle1" pos="6.90" speed="10.00"/>
            </lane>
        </edge>
    </timestep>
    <timestep time="0.19">
        <edge id="-E0">
            <lane id="-E0_0"/>
            <lane id="-E0_1"/>
            <lane id="-E0_2">
                <vehicle id="vehicle1" pos="7.00" speed="10.00"/>
            </lane>
        </edge>
    </timestep>
    <timestep time="0.20">
        <edge id="-E0">
            <lane id="-E0_0"/>
            <lane id="-E0_1"/>
            <lane id="-E0_2">
                <vehicle id="vehicle1" pos="7.10" speed="10.00"/>
            </lane>
        </edge>
    </timestep>
    <timestep time="0.21">
        <edge id="-E0">
            <lane id="-E0_0"/>
            <lane id="-E0_1"/>
            <lane id="-E0_2">
                <vehicle id="vehicle1" pos="7.20" speed="10.00"/>
            </lane>
        </edge>
    </timestep>
    <timestep time="0.22">
        <edge id="-E0">
            <lane id="-E0_0"/>
            <lane id="-E0_1"/>
            <lane id="-E0_2">
                <vehicle id="vehicle1" pos="7.30" speed="10.00"/>
            </lane>
        </edge>
    </timestep>
    <timestep time="0.23">
        <edge id="-E0">
            <lane id="-E0_0"/>
            <lane id="-E0_1"/>
            <lane id="-E0_2">
                <vehicle id="vehicle1" pos="7.40" speed="10.00"/>
            </lane>
        </edge>
    </timestep>
    <timestep time="0.24">
        <edge id="-E0">
            <lane id="-E0_0"/>
            <lane id="-E0_1"/>
            <lane id="-E0_2">
                <vehicle id="vehicle1" pos="7.50" speed="10.00"/>
            </lane>
        </edge>
    </timestep>
    <timestep time="0.25">
        <edge id="-E0">
            <lane id="-E0_0"/>
            <lane id="-E0_1"/>
            <lane id="-E0_2">
                <vehicle id="vehicle1" pos="7.60" speed="10.00"/>
            </lane>
        </edge>
    </timestep>
    <timestep time="0.26">
        <edge id="-E0">
            <lane id="-E0_0"/>
            <lane id="-E0_1"/>
            <lane id="-E0_2">
                <vehicle id="vehicle1" pos="7.70" speed="10.00"/>
            </lane>
        </edge>
    </timestep>
    <timestep time="0.27">
        <edge id="-E0">
            <lane id="-E0_0"/>
            <lane id="-E0_1"/>
            <lane id="-E0_2">
                <vehicle id="vehicle1" pos="7.80" speed="10.00"/>
            </lane>
        </edge>
    </timestep>
    <timestep time="0.28">
        <edge id="-E0">
            <lane id="-E0_0"/>
            <lane id="-E0_1"/>
            <lane id="-E0_2">
                <vehicle id="vehicle1" pos="7.90" speed="10.00"/>
            </lane>
        </edge>
    </timestep>
    <timestep time="0.29">
        <edge id="-E0">
            <lane id="-E0_0"/>
            <lane id="-E0_1"/>
            <lane id="-E0_2">
                <vehicle id="vehicle1" pos="8.00" speed="10.00"/>
            </lane>
        </edge>
    </timestep>
    <timestep time="0.30">
        <edge id="-E0">
            <lane id="-E0_0"/>
            <lane id="-E0_1"/>
            <lane id="-E0_2">
                <vehicle id="vehicle1" pos="8.10" speed="10.00"/>
            </lane>
        </edge>
    </timestep>
    <timestep time="0.31">
        <edge id="-E0">
            <lane id="-E0_0"/>
            <lane id="-E0_1"/>
            <lane id="-E0_2">
                <vehicle id="vehicle1" pos="8.20" speed="10.00"/>
            </lane>
        </edge>
    </timestep>
    <timestep time="0.32">
        <edge id="-E0">
            <lane id="-E0_0"/>
            <lane id="-E0_1"/>
            <lane id="-E0_2">
                <vehicle id="vehicle1" pos="8.30" speed="10.00"/>
            </lane>
        </edge>
    </timestep>
    <timestep time="0.33">
        <edge id="-E0">
            <lane id="-E0_0"/>
            <lane id="-E0_1"/>
            <lane id="-E0_2">
                <vehicle id="vehicle1" pos="8.40" speed="10.00"/>
            </lane>
        </edge>
    </timestep>
    <timestep time="0.34">
        <edge id="-E0">
            <lane id="-E0_0"/>
            <lane id="-E0_1"/>
            <lane id="-E0_2">
                <vehicle id="vehicle1" pos="8.50" speed="10.00"/>
            </lane>
        </edge>
    </timestep>
    <timestep time="0.35">
        <edge id="-E0">
            <lane id="-E0_0"/>
            <lane id="-E0_1"/>
            <lane id="-E0_2">
                <vehicle id="vehicle1" pos="8.60" speed="10.00"/>
            </lane>
        </edge>
    </timestep>
    <timestep time="0.36">
        <edge id="-E0">
            <lane id="-E0_0"/>
            <lane id="-E0_1"/>
            <lane id="-E0_2">
                <vehicle id="vehicle1" pos="8.70" speed="10.00"/>
            </lane>
        </edge>
    </timestep>
    <timestep time="0.37">
        <edge id="-E0">
            <lane id="-E0_0"/>
            <lane id="-E0_1"/>
            <lane id="-E0_2">
                <vehicle id="vehicle1" pos="8.80" speed="10.00"/>
            </lane>
        </edge>
    </timestep>
    <timestep time="0.38">
        <edge id="-E0">
            <lane id="-E0_0"/>
            <lane id="-E0_1"/>
            <lane id="-E0_2">
                <vehicle id="vehicle1" pos="8.90" speed="10.00"/>
            </lane>
        </edge>
    </timestep>
    <timestep time="0.39">
        <edge id="-E0">
            <lane id="-E0_0"/>
            <lane id="-E0_1"/>
            <lane id="-E0_2">
                <vehicle id="vehicle1" pos="9.00" speed="10.00"/>
            </lane>
        </edge>
    </timestep>
    <timestep time="0.40">
        <edge id="-E0">
            <lane id="-E0_0"/>
            <lane id="-E0_1"/>
            <lane id="-E0_2">
                <vehicle id="vehicle1" pos="9.10" speed="10.00"/>
            </lane>
        </edge>
    </timestep>
    <timestep time="0.41">
        <edge id="-E0">
            <lane id="-E0_0"/>
            <lane id="-E0_1"/>
            <lane id="-E0_2">
                <vehicle id="vehicle1" pos="9.20" speed="10.00"/>
            </lane>
        </edge>
    </timestep>
    <timestep time="0.42">
        <edge id="-E0">
            <lane id="-E0_0"/>
            <lane id="-E0_1"/>
            <lane id="-E0_2">
                <vehicle id="vehicle1" pos="9.30" speed="10.00"/>
            </lane>
        </edge>
    </timestep>
    <timestep time="0.43">
        <edge id="-E0">
            <lane id="-E0_0"/>
            <lane id="-E0_1"/>
            <lane id="-E0_2">
                <vehicle id="vehicle1" pos="9.40" speed="10.00"/>
            </lane>
        </edge>
    </timestep>
    <timestep time="0.44">
        <edge id="-E0">
            <lane id="-E0_0"/>
            <lane id="-E0_1"/>
            <lane id="-E0_2">
                <vehicle id="vehicle1" pos="9.50" speed="10.00"/>
            </lane>
        </edge>
    </timestep>
    <timestep time="0.45">
        <edge id="-E0">
            <lane id="-E0_0"/>
            <lane id="-E0_1"/>
            <lane id="-E0_2">
                <vehicle id="vehicle1" pos="9.60" speed="10.00"/>
            </lane>
        </edge>
    </timestep>
    <timestep time="0.46">
        <edge id="-E0">
            <lane id="-E0_0"/>
            <lane id="-E0_1"/>
            <lane id="-E0_2">
                <vehicle id="vehicle1" pos="9.70" speed="10.00"/>
            </lane>
        </edge>
    </timestep>
    <timestep time="0.47">
        <edge id="-E0">
            <lane id="-E0_0"/>
            <lane id="-E0_1"/>
            <lane id="-E0_2">
                <vehicle id="vehicle1" pos="9.80" speed="10.00"/>
            </lane>
        </edge>
    </timestep>
    <timestep time="0.48">
        <edge id="-E0">
            <lane id="-E0_0"/>
            <lane id="-E0_1"/>
            <lane id="-E0_2">
                <vehicle id="vehicle1" pos="9.90" speed="10.00"/>
            </lane>
        </edge>
    </timestep>
    <timestep time="0.49">
        <edge id="-E0">
            <lane id="-E0_0"/>
            <lane id="-E0_1"/>
            <lane id="-E0_2">
                <vehicle id="vehicle1" pos="10.00" speed="10.00"/>
            </lane>
        </edge>
    </timestep>
    <timestep time="0.50">
        <edge id="-E0">
            <lane id="-E0_0"/>
            <lane id="-E0_1"/>
            <lane id="-E0_2">
                <vehicle id="vehicle1" pos="10.10" speed="10.00"/>
            </lane>
        </edge>
    </timestep>
    <timestep time="0.51">
        <edge id="-E0">
            <lane id="-E0_0"/>
            <lane id="-E0_1"/>
            <lane id="-E0_2">
                <vehicle id="vehicle1" pos="10.20" speed="10.00"/>
            </lane>
        </edge>
    </timestep>
    <timestep time="0.52">
        <edge id="-E0">
            <lane id="-E0_0"/>
            <lane id="-E0_1"/>
            <lane id="-E0_2">
                <vehicle id="vehicle1" pos="10.30" speed="10.00"/>
            </lane>
        </edge>
    </timestep>
    <timestep time="0.53">
        <edge id="-E0">
            <lane id="-E0_0"/>
            <lane id="-E0_1"/>
            <lane id="-E0_2">
                <vehicle id="vehicle1" pos="10.40" speed="10.00"/>
            </lane>
        </edge>
    </timestep>
    <timestep time="0.54">
        <edge id="-E0">
            <lane id="-E0_0"/>
            <lane id="-E0_1"/>
            <lane id="-E0_2">
                <vehicle id="vehicle1" pos="10.50" speed="10.00"/>
            </lane>
        </edge>
    </timestep>
    <timestep time="0.55">
        <edge id="-E0">
            <lane id="-E0_0"/>
            <lane id="-E0_1"/>
            <lane id="-E0_2">
                <vehicle id="vehicle1" pos="10.60" speed="10.00"/>
            </lane>
        </edge>
    </timestep>
    <timestep time="0.56">
        <edge id="-E0">
            <lane id="-E0_0"/>
            <lane id="-E0_1"/>
            <lane id="-E0_2">
                <vehicle id="vehicle1" pos="10.70" speed="10.00"/>
            </lane>
        </edge>
    </timestep>
    <timestep time="0.57">
        <edge id="-E0">
            <lane id="-E0_0"/>
            <lane id="-E0_1"/>
            <lane id="-E0_2">
                <vehicle id="vehicle1" pos="10.80" speed="10.00"/>
            </lane>
        </edge>
    </timestep>
    <timestep time="0.58">
        <edge id="-E0">
            <lane id="-E0_0"/>
            <lane id="-E0_1"/>
            <lane id="-E0_2">
                <vehicle id="vehicle1" pos="10.90" speed="10.00"/>
            </lane>
        </edge>
    </timestep>
    <timestep time="0.59">
        <edge id="-E0">
            <lane id="-E0_0"/>
            <lane id="-E0_1"/>
            <lane id="-E0_2">
                <vehicle id="vehicle1" pos="11.00" speed="10.00"/>
            </lane>
        </edge>
    </timestep>
    <timestep time="0.60">
        <edge id="-E0">
            <lane id="-E0_0"/>
            <lane id="-E0_1"/>
            <lane id="-E0_2">
                <vehicle id="vehicle1" pos="11.10" speed="10.00"/>
            </lane>
        </edge>
    </timestep>
    <timestep time="0.61">
        <edge id="-E0">
            <lane id="-E0_0"/>
            <lane id="-E0_1"/>
            <lane id="-E0_2">
                <vehicle id="vehicle1" pos="11.20" speed="10.00"/>
            </lane>
        </edge>
    </timestep>
    <timestep time="0.62">
        <edge id="-E0">
            <lane id="-E0_0"/>
            <lane id="-E0_1"/>
            <lane id="-E0_2">
                <vehicle id="vehicle1" pos="11.30" speed="10.00"/>
            </lane>
        </edge>
    </timestep>
    <timestep time="0.63">
        <edge id="-E0">
            <lane id="-E0_0"/>
            <lane id="-E0_1"/>
            <lane id="-E0_2">
                <vehicle id="vehicle1" pos="11.40" speed="10.00"/>
            </lane>
        </edge>
    </timestep>
    <timestep time="0.64">
        <edge id="-E0">
            <lane id="-E0_0"/>
            <lane id="-E0_1"/>
            <lane id="-E0_2">
                <vehicle id="vehicle1" pos="11.50" speed="10.00"/>
            </lane>
        </edge>
    </timestep>
    <timestep time="0.65">
        <edge id="-E0">
            <lane id="-E0_0"/>
            <lane id="-E0_1"/>
            <lane id="-E0_2">
                <vehicle id="vehicle1" pos="11.60" speed="10.00"/>
            </lane>
        </edge>
    </timestep>
    <timestep time="0.66">
        <edge id="-E0">
            <lane id="-E0_0"/>
            <lane id="-E0_1"/>
            <lane id="-E0_2">
                <vehicle id="vehicle1" pos="11.70" speed="10.00"/>
            </lane>
        </edge>
    </timestep>
    <timestep time="0.67">
        <edge id="-E0">
            <lane id="-E0_0"/>
            <lane id="-E0_1"/>
            <lane id="-E0_2">
                <vehicle id="vehicle1" pos="11.80" speed="10.00"/>
            </lane>
        </edge>
    </timestep>
    <timestep time="0.68">
        <edge id="-E0">
            <lane id="-E0_0"/>
            <lane id="-E0_1"/>
            <lane id="-E0_2">
                <vehicle id="vehicle1" pos="11.90" speed="10.00"/>
            </lane>
        </edge>
    </timestep>
    <timestep time="0.69">
        <edge id="-E0">
            <lane id="-E0_0"/>
            <lane id="-E0_1"/>
            <lane id="-E0_2">
                <vehicle id="vehicle1" pos="12.00" speed="10.00"/>
            </lane>
        </edge>
    </timestep>
    <timestep time="0.70">
        <edge id="-E0">
            <lane id="-E0_0"/>
            <lane id="-E0_1"/>
            <lane id="-E0_2">
                <vehicle id="vehicle1" pos="12.10" speed="10.00"/>
            </lane>
        </edge>
    </timestep>
    <timestep time="0.71">
        <edge id="-E0">
            <lane id="-E0_0"/>
            <lane id="-E0_1"/>
            <lane id="-E0_2">
                <vehicle id="vehicle1" pos="12.20" speed="10.00"/>
            </lane>
        </edge>
    </timestep>
    <timestep time="0.72">
        <edge id="-E0">
            <lane id="-E0_0"/>
            <lane id="-E0_1"/>
            <lane id="-E0_2">
                <vehicle id="vehicle1" pos="12.30" speed="10.00"/>
            </lane>
        </edge>
    </timestep>
    <timestep time="0.73">
        <edge id="-E0">
            <lane id="-E0_0"/>
            <lane id="-E0_1"/>
            <lane id="-E0_2">
                <vehicle id="vehicle1" pos="12.40" speed="10.00"/>
            </lane>
        </edge>
    </timestep>
    <timestep time="0.74">
        <edge id="-E0">
            <lane id="-E0_0"/>
            <lane id="-E0_1"/>
            <lane id="-E0_2">
                <vehicle id="vehicle1" pos="12.50" speed="10.00"/>
            </lane>
        </edge>
    </timestep>
    <timestep time="0.75">
        <edge id="-E0">
            <lane id="-E0_0"/>
            <lane id="-E0_1"/>
            <lane id="-E0_2">
                <vehicle id="vehicle1" pos="12.60" speed="10.00"/>
            </lane>
        </edge>
    </timestep>
    <timestep time="0.76">
        <edge id="-E0">
            <lane id="-E0_0"/>
            <lane id="-E0_1"/>
            <lane id="-E0_2">
                <vehicle id="vehicle1" pos="12.70" speed="10.00"/>
            </lane>
        </edge>
    </timestep>
    <timestep time="0.77">
        <edge id="-E0">
            <lane id="-E0_0"/>
            <lane id="-E0_1"/>
            <lane id="-E0_2">
                <vehicle id="vehicle1" pos="12.80" speed="10.00"/>
            </lane>
        </edge>
    </timestep>
    <timestep time="0.78">
        <edge id="-E0">
            <lane id="-E0_0"/>
            <lane id="-E0_1"/>
            <lane id="-E0_2">
                <vehicle id="vehicle1" pos="12.90" speed="10.00"/>
            </lane>
        </edge>
    </timestep>
    <timestep time="0.79">
        <edge id="-E0">
            <lane id="-E0_0"/>
            <lane id="-E0_1"/>
            <lane id="-E0_2">
                <vehicle id="vehicle1" pos="13.00" speed="10.00"/>
            </lane>
        </edge>
    </timestep>
    <timestep time="0.80">
        <edge id="-E0">
            <lane id="-E0_0"/>
            <lane id="-E0_1"/>
            <lane id="-E0_2">
                <vehicle id="vehicle1" pos="13.10" speed="10.00"/>
            </lane>
        </edge>
    </timestep>
    <timestep time="0.81">
        <edge id="-E0">
            <lane id="-E0_0"/>
            <lane id="-E0_1"/>
            <lane id="-E0_2">
                <vehicle id="vehicle1" pos="13.20" speed="10.00"/>
            </lane>
        </edge>
    </timestep>
    <timestep time="0.82">
        <edge id="-E0">
            <lane id="-E0_0"/>
            <lane id="-E0_1"/>
            <lane id="-E0_2">
                <vehicle id="vehicle1" pos="13.30" speed="10.00"/>
            </lane>
        </edge>
    </timestep>
    <timestep time="0.83">
        <edge id="-E0">
            <lane id="-E0_0"/>
            <lane id="-E0_1"/>
            <lane id="-E0_2">
                <vehicle id="vehicle1" pos="13.40" speed="10.00"/>
            </lane>
        </edge>
    </timestep>
    <timestep time="0.84">
        <edge id="-E0">
            <lane id="-E0_0"/>
            <lane id="-E0_1"/>
            <lane id="-E0_2">
                <vehicle id="vehicle1" pos="13.50" speed="10.00"/>
            </lane>
        </edge>
    </timestep>
    <timestep time="0.85">
        <edge id="-E0">
            <lane id="-E0_0"/>
            <lane id="-E0_1"/>
            <lane id="-E0_2">
                <vehicle id="vehicle1" pos="13.60" speed="10.00"/>
            </lane>
        </edge>
    </timestep>
    <timestep time="0.86">
        <edge id="-E0">
            <lane id="-E0_0"/>
            <lane id="-E0_1"/>
            <lane id="-E0_2">
                <vehicle id="vehicle1" pos="13.70" speed="10.00"/>
            </lane>
        </edge>
    </timestep>
    <timestep time="0.87">
        <edge id="-E0">
            <lane id="-E0_0"/>
            <lane id="-E0_1"/>
            <lane id="-E0_2">
                <vehicle id="vehicle1" pos="13.80" speed="10.00"/>
            </lane>
        </edge>
    </timestep>
    <timestep time="0.88">
        <edge id="-E0">
            <lane id="-E0_0"/>
            <lane id="-E0_1"/>
            <lane id="-E0_2">
                <vehicle id="vehicle1" pos="13.90" speed="10.00"/>
            </lane>
        </edge>
    </timestep>
    <timestep time="0.89">
        <edge id="-E0">
            <lane id="-E0_0"/>
            <lane id="-E0_1"/>
            <lane id="-E0_2">
                <vehicle id="vehicle1" pos="14.00" speed="10.00"/>
            </lane>
        </edge>
    </timestep>
    <timestep time="0.90">
        <edge id="-E0">
            <lane id="-E0_0"/>
            <lane id="-E0_1"/>
            <lane id="-E0_2">
                <vehicle id="vehicle1" pos="14.10" speed="10.00"/>
            </lane>
        </edge>
    </timestep>
    <timestep time="0.91">
        <edge id="-E0">
            <lane id="-E0_0"/>
            <lane id="-E0_1"/>
            <lane id="-E0_2">
                <vehicle id="vehicle1" pos="14.20" speed="10.00"/>
            </lane>
        </edge>
    </timestep>
    <timestep time="0.92">
        <edge id="-E0">
            <lane id="-E0_0"/>
            <lane id="-E0_1"/>
            <lane id="-E0_2">
                <vehicle id="vehicle1" pos="14.30" speed="10.00"/>
            </lane>
        </edge>
    </timestep>
    <timestep time="0.93">
        <edge id="-E0">
            <lane id="-E0_0"/>
            <lane id="-E0_1"/>
            <lane id="-E0_2">
                <vehicle id="vehicle1" pos="14.40" speed="10.00"/>
            </lane>
        </edge>
    </timestep>
    <timestep time="0.94">
        <edge id="-E0">
            <lane id="-E0_0"/>
            <lane id="-E0_1"/>
            <lane id="-E0_2">
                <vehicle id="vehicle1" pos="14.50" speed="10.00"/>
            </lane>
        </edge>
    </timestep>
    <timestep time="0.95">
        <edge id="-E0">
            <lane id="-E0_0"/>
            <lane id="-E0_1"/>
            <lane id="-E0_2">
                <vehicle id="vehicle1" pos="14.60" speed="10.00"/>
            </lane>
        </edge>
    </timestep>
    <timestep time="0.96">
        <edge id="-E0">
            <lane id="-E0_0"/>
            <lane id="-E0_1"/>
            <lane id="-E0_2">
                <vehicle id="vehicle1" pos="14.70" speed="10.00"/>
            </lane>
        </edge>
    </timestep>
    <timestep time="0.97">
        <edge id="-E0">
            <lane id="-E0_0"/>
            <lane id="-E0_1"/>
            <lane id="-E0_2">
                <vehicle id="vehicle1" pos="14.80" speed="10.00"/>
            </lane>
        </edge>
    </timestep>
    <timestep time="0.98">
        <edge id="-E0">
            <lane id="-E0_0"/>
            <lane id="-E0_1"/>
            <lane id="-E0_2">
                <vehicle id="vehicle1" pos="14.90" speed="10.00"/>
            </lane>
        </edge>
    </timestep>
    <timestep time="0.99">
        <edge id="-E0">
            <lane id="-E0_0"/>
            <lane id="-E0_1"/>
            <lane id="-E0_2">
                <vehicle id="vehicle1" pos="15.00" speed="10.00"/>
            </lane>
        </edge>
    </timestep>
    <timestep time="1.00">
        <edge id="-E0">
            <lane id="-E0_0"/>
            <lane id="-E0_1"/>
            <lane id="-E0_2">
                <vehicle id="vehicle1" pos="15.10" speed="10.00"/>
            </lane>
        </edge>
    </timestep>
    <timestep time="1.01">
        <edge id="-E0">
            <lane id="-E0_0"/>
            <lane id="-E0_1"/>
            <lane id="-E0_2">
                <vehicle id="vehicle1" pos="15.20" speed="10.00"/>
            </lane>
        </edge>
    </timestep>
    <timestep time="1.02">
        <edge id="-E0">
            <lane id="-E0_0"/>
            <lane id="-E0_1"/>
            <lane id="-E0_2">
                <vehicle id="vehicle1" pos="15.30" speed="10.00"/>
            </lane>
        </edge>
    </timestep>
    <timestep time="1.03">
        <edge id="-E0">
            <lane id="-E0_0"/>
            <lane id="-E0_1"/>
            <lane id="-E0_2">
                <vehicle id="vehicle1" pos="15.40" speed="10.00"/>
            </lane>
        </edge>
    </timestep>
    <timestep time="1.04">
        <edge id="-E0">
            <lane id="-E0_0"/>
            <lane id="-E0_1"/>
            <lane id="-E0_2">
                <vehicle id="vehicle1" pos="15.50" speed="10.00"/>
            </lane>
        </edge>
    </timestep>
    <timestep time="1.05">
        <edge id="-E0">
            <lane id="-E0_0"/>
            <lane id="-E0_1"/>
            <lane id="-E0_2">
                <vehicle id="vehicle1" pos="15.60" speed="10.00"/>
            </lane>
        </edge>
    </timestep>
    <timestep time="1.06">
        <edge id="-E0">
            <lane id="-E0_0"/>
            <lane id="-E0_1"/>
            <lane id="-E0_2">
                <vehicle id="vehicle1" pos="15.70" speed="10.00"/>
            </lane>
        </edge>
    </timestep>
    <timestep time="1.07">
        <edge id="-E0">
            <lane id="-E0_0"/>
            <lane id="-E0_1"/>
            <lane id="-E0_2">
                <vehicle id="vehicle1" pos="15.80" speed="10.00"/>
            </lane>
        </edge>
    </timestep>
    <timestep time="1.08">
        <edge id="-E0">
            <lane id="-E0_0"/>
            <lane id="-E0_1"/>
            <lane id="-E0_2">
                <vehicle id="vehicle1" pos="15.90" speed="10.00"/>
            </lane>
        </edge>
    </timestep>
    <timestep time="1.09">
        <edge id="-E0">
            <lane id="-E0_0"/>
            <lane id="-E0_1"/>
            <lane id="-E0_2">
                <vehicle id="vehicle1" pos="16.00" speed="10.00"/>
            </lane>
        </edge>
    </timestep>
    <timestep time="1.10">
        <edge id="-E0">
            <lane id="-E0_0"/>
            <lane id="-E0_1"/>
            <lane id="-E0_2">
                <vehicle id="vehicle1" pos="16.10" speed="10.00"/>
            </lane>
        </edge>
    </timestep>
    <timestep time="1.11">
        <edge id="-E0">
            <lane id="-E0_0"/>