<?xml version="1.0" encoding="UTF-8"?>

<!-- generated on 2024-05-21 17:07:51 by Eclipse SUMO GUI Version 1.19.0
<configuration xmlns:xsi="http://www.w3.org/2001/XMLSchema-instance" xsi:noNamespaceSchemaLocation="http://sumo.dlr.de/xsd/sumoConfiguration.xsd">

    <input>
        <net-file value="net_file.net.xml"/>
        <route-files value="routes.rou.xml"/>
    </input>

    <output>
        <netstate-dump value="output/netstate-dump.xml"/>
        <summary-output value="output/summary.xml"/>
    </output>

    <time>
        <begin value="0"/>
        <end value="29"/>
        <step-length value="0.01"/>
    </time>

    <traci_server>
        <remote-port value="1089"/>
    </traci_server>

</configuration>
-->

<netstate xmlns:xsi="http://www.w3.org/2001/XMLSchema-instance" xsi:noNamespaceSchemaLocation="http://sumo.dlr.de/xsd/netstate_file.xsd">
    <timestep time="0.00">
        <edge id="-E0">
            <lane id="-E0_0"/>
            <lane id="-E0_1"/>
            <lane id="-E0_2">
                <vehicle id="vehicle1" pos="5.10" speed="0.00"/>
            </lane>
        </edge>
    </timestep>
    <timestep time="0.01">
        <edge id="-E0">
            <lane id="-E0_0"/>
            <lane id="-E0_1"/>
            <lane id="-E0_2">
                <vehicle id="vehicle1" pos="5.10" speed="0.04"/>
            </lane>
        </edge>
    </timestep>
    <timestep time="0.02">
        <edge id="-E0">
            <lane id="-E0_0"/>
            <lane id="-E0_1"/>
            <lane id="-E0_2">
                <vehicle id="vehicle1" pos="5.10" speed="0.08"/>
            </lane>
        </edge>
    </timestep>
    <timestep time="0.03">
        <edge id="-E0">
            <lane id="-E0_0"/>
            <lane id="-E0_1"/>
            <lane id="-E0_2">
                <vehicle id="vehicle1" pos="5.10" speed="0.12"/>
            </lane>
        </edge>
    </timestep>
    <timestep time="0.04">
        <edge id="-E0">
            <lane id="-E0_0"/>
            <lane id="-E0_1"/>
            <lane id="-E0_2">
                <vehicle id="vehicle1" pos="5.10" speed="0.16"/>
            </lane>
        </edge>
    </timestep>
    <timestep time="0.05">
        <edge id="-E0">
            <lane id="-E0_0"/>
            <lane id="-E0_1"/>
            <lane id="-E0_2">
                <vehicle id="vehicle1" pos="5.10" speed="0.20"/>
            </lane>
        </edge>
    </timestep>
    <timestep time="0.06">
        <edge id="-E0">
            <lane id="-E0_0"/>
            <lane id="-E0_1"/>
            <lane id="-E0_2">
                <vehicle id="vehicle1" pos="5.11" speed="0.24"/>
            </lane>
        </edge>
    </timestep>
    <timestep time="0.07">
        <edge id="-E0">
            <lane id="-E0_0"/>
            <lane id="-E0_1"/>
            <lane id="-E0_2">
                <vehicle id="vehicle1" pos="5.11" speed="0.28"/>
            </lane>
        </edge>
    </timestep>
    <timestep time="0.08">
        <edge id="-E0">
            <lane id="-E0_0"/>
            <lane id="-E0_1"/>
            <lane id="-E0_2">
                <vehicle id="vehicle1" pos="5.11" speed="0.32"/>
            </lane>
        </edge>
    </timestep>
    <timestep time="0.09">
        <edge id="-E0">
            <lane id="-E0_0"/>
            <lane id="-E0_1"/>
            <lane id="-E0_2">
                <vehicle id="vehicle1" pos="5.11" speed="0.35"/>
            </lane>
        </edge>
    </timestep>
    <timestep time="0.10">
        <edge id="-E0">
            <lane id="-E0_0"/>
            <lane id="-E0_1"/>
            <lane id="-E0_2">
                <vehicle id="vehicle1" pos="5.12" speed="0.39"/>
            </lane>
        </edge>
    </timestep>
    <timestep time="0.11">
        <edge id="-E0">
            <lane id="-E0_0"/>
            <lane id="-E0_1"/>
            <lane id="-E0_2">
                <vehicle id="vehicle1" pos="5.12" speed="0.43"/>
            </lane>
        </edge>
    </timestep>
    <timestep time="0.12">
        <edge id="-E0">
            <lane id="-E0_0"/>
            <lane id="-E0_1"/>
            <lane id="-E0_2">
                <vehicle id="vehicle1" pos="5.13" speed="0.47"/>
            </lane>
        </edge>
    </timestep>
    <timestep time="0.13">
        <edge id="-E0">
            <lane id="-E0_0"/>
            <lane id="-E0_1"/>
            <lane id="-E0_2">
                <vehicle id="vehicle1" pos="5.13" speed="0.51"/>
            </lane>
        </edge>
    </timestep>
    <timestep time="0.14">
        <edge id="-E0">
            <lane id="-E0_0"/>
            <lane id="-E0_1"/>
            <lane id="-E0_2">
                <vehicle id="vehicle1" pos="5.14" speed="0.55"/>
            </lane>
        </edge>
    </timestep>
    <timestep time="0.15">
        <edge id="-E0">
            <lane id="-E0_0"/>
            <lane id="-E0_1"/>
            <lane id="-E0_2">
                <vehicle id="vehicle1" pos="5.14" speed="0.59"/>
            </lane>
        </edge>
    </timestep>
    <timestep time="0.16">
        <edge id="-E0">
            <lane id="-E0_0"/>
            <lane id="-E0_1"/>
            <lane id="-E0_2">
                <vehicle id="vehicle1" pos="5.15" speed="0.63"/>
            </lane>
        </edge>
    </timestep>
    <timestep time="0.17">
        <edge id="-E0">
            <lane id="-E0_0"/>
            <lane id="-E0_1"/>
            <lane id="-E0_2">
                <vehicle id="vehicle1" pos="5.16" speed="0.66"/>
            </lane>
        </edge>
    </timestep>
    <timestep time="0.18">
        <edge id="-E0">
            <lane id="-E0_0"/>
            <lane id="-E0_1"/>
            <lane id="-E0_2">
                <vehicle id="vehicle1" pos="5.16" speed="0.70"/>
            </lane>
        </edge>
    </timestep>
    <timestep time="0.19">
        <edge id="-E0">
            <lane id="-E0_0"/>
            <lane id="-E0_1"/>
            <lane id="-E0_2">
                <vehicle id="vehicle1" pos="5.17" speed="0.74"/>
            </lane>
        </edge>
    </timestep>
    <timestep time="0.20">
        <edge id="-E0">
            <lane id="-E0_0"/>
            <lane id="-E0_1"/>
            <lane id="-E0_2">
                <vehicle id="vehicle1" pos="5.18" speed="0.77"/>
            </lane>
        </edge>
    </timestep>
    <timestep time="0.21">
        <edge id="-E0">
            <lane id="-E0_0"/>
            <lane id="-E0_1"/>
            <lane id="-E0_2">
                <vehicle id="vehicle1" pos="5.19" speed="0.81"/>
            </lane>
        </edge>
    </timestep>
    <timestep time="0.22">
        <edge id="-E0">
            <lane id="-E0_0"/>
            <lane id="-E0_1"/>
            <lane id="-E0_2">
                <vehicle id="vehicle1" pos="5.20" speed="0.85"/>
            </lane>
        </edge>
    </timestep>
    <timestep time="0.23">
        <edge id="-E0">
            <lane id="-E0_0"/>
            <lane id="-E0_1"/>
            <lane id="-E0_2">
                <vehicle id="vehicle1" pos="5.20" speed="0.89"/>
            </lane>
        </edge>
    </timestep>
    <timestep time="0.24">
        <edge id="-E0">
            <lane id="-E0_0"/>
            <lane id="-E0_1"/>
            <lane id="-E0_2">
                <vehicle id="vehicle1" pos="5.21" speed="0.93"/>
            </lane>
        </edge>
    </timestep>
    <timestep time="0.25">
        <edge id="-E0">
            <lane id="-E0_0"/>
            <lane id="-E0_1"/>
            <lane id="-E0_2">
                <vehicle id="vehicle1" pos="5.22" speed="0.96"/>
            </lane>
        </edge>
    </timestep>
    <timestep time="0.26">
        <edge id="-E0">
            <lane id="-E0_0"/>
            <lane id="-E0_1"/>
            <lane id="-E0_2">
                <vehicle id="vehicle1" pos="5.23" speed="1.00"/>
            </lane>
        </edge>
    </timestep>
    <timestep time="0.27">
        <edge id="-E0">
            <lane id="-E0_0"/>
            <lane id="-E0_1"/>
            <lane id="-E0_2">
                <vehicle id="vehicle1" pos="5.24" speed="1.03"/>
            </lane>
        </edge>
    </timestep>
    <timestep time="0.28">
        <edge id="-E0">
            <lane id="-E0_0"/>
            <lane id="-E0_1"/>
            <lane id="-E0_2">
                <vehicle id="vehicle1" pos="5.25" speed="1.07"/>
            </lane>
        </edge>
    </timestep>
    <timestep time="0.29">
        <edge id="-E0">
            <lane id="-E0_0"/>
            <lane id="-E0_1"/>
            <lane id="-E0_2">
                <vehicle id="vehicle1" pos="5.27" speed="1.11"/>
            </lane>
        </edge>
    </timestep>
    <timestep time="0.30">
        <edge id="-E0">
            <lane id="-E0_0"/>
            <lane id="-E0_1"/>
            <lane id="-E0_2">
                <vehicle id="vehicle1" pos="5.28" speed="1.15"/>
            </lane>
        </edge>
    </timestep>
    <timestep time="0.31">
        <edge id="-E0">
            <lane id="-E0_0"/>
            <lane id="-E0_1"/>
            <lane id="-E0_2">
                <vehicle id="vehicle1" pos="5.29" speed="1.18"/>
            </lane>
        </edge>
    </timestep>
    <timestep time="0.32">
        <edge id="-E0">
            <lane id="-E0_0"/>
            <lane id="-E0_1"/>
            <lane id="-E0_2">
                <vehicle id="vehicle1" pos="5.30" speed="1.22"/>
            </lane>
        </edge>
    </timestep>
    <timestep time="0.33">
        <edge id="-E0">
            <lane id="-E0_0"/>
            <lane id="-E0_1"/>
            <lane id="-E0_2">
                <vehicle id="vehicle1" pos="5.31" speed="1.26"/>
            </lane>
        </edge>
    </timestep>
    <timestep time="0.34">
        <edge id="-E0">
            <lane id="-E0_0"/>
            <lane id="-E0_1"/>
            <lane id="-E0_2">
                <vehicle id="vehicle1" pos="5.33" speed="1.30"/>
            </lane>
        </edge>
    </timestep>
    <timestep time="0.35">
        <edge id="-E0">
            <lane id="-E0_0"/>
            <lane id="-E0_1"/>
            <lane id="-E0_2">
                <vehicle id="vehicle1" pos="5.34" speed="1.33"/>
            </lane>
        </edge>
    </timestep>
    <timestep time="0.36">
        <edge id="-E0">
            <lane id="-E0_0"/>
            <lane id="-E0_1"/>
            <lane id="-E0_2">
                <vehicle id="vehicle1" pos="5.35" speed="1.37"/>
            </lane>
        </edge>
    </timestep>
    <timestep time="0.37">
        <edge id="-E0">
            <lane id="-E0_0"/>
            <lane id="-E0_1"/>
            <lane id="-E0_2">
                <vehicle id="vehicle1" pos="5.37" speed="1.41"/>
            </lane>
        </edge>
    </timestep>
    <timestep time="0.38">
        <edge id="-E0">
            <lane id="-E0_0"/>
            <lane id="-E0_1"/>
            <lane id="-E0_2">
                <vehicle id="vehicle1" pos="5.38" speed="1.45"/>
            </lane>
        </edge>
    </timestep>
    <timestep time="0.39">
        <edge id="-E0">
            <lane id="-E0_0"/>
            <lane id="-E0_1"/>
            <lane id="-E0_2">
                <vehicle id="vehicle1" pos="5.40" speed="1.48"/>
            </lane>
        </edge>
    </timestep>
    <timestep time="0.40">
        <edge id="-E0">
            <lane id="-E0_0"/>
            <lane id="-E0_1"/>
            <lane id="-E0_2">
                <vehicle id="vehicle1" pos="5.41" speed="1.52"/>
            </lane>
        </edge>
    </timestep>
    <timestep time="0.41">
        <edge id="-E0">
            <lane id="-E0_0"/>
            <lane id="-E0_1"/>
            <lane id="-E0_2">
                <vehicle id="vehicle1" pos="5.43" speed="1.55"/>
            </lane>
        </edge>
    </timestep>
    <timestep time="0.42">
        <edge id="-E0">
            <lane id="-E0_0"/>
            <lane id="-E0_1"/>
            <lane id="-E0_2">
                <vehicle id="vehicle1" pos="5.44" speed="1.59"/>
            </lane>
        </edge>
    </timestep>
    <timestep time="0.43">
        <edge id="-E0">
            <lane id="-E0_0"/>
            <lane id="-E0_1"/>
            <lane id="-E0_2">
                <vehicle id="vehicle1" pos="5.46" speed="1.63"/>
            </lane>
        </edge>
    </timestep>
    <timestep time="0.44">
        <edge id="-E0">
            <lane id="-E0_0"/>
            <lane id="-E0_1"/>
            <lane id="-E0_2">
                <vehicle id="vehicle1" pos="5.48" speed="1.67"/>
            </lane>
        </edge>
    </timestep>
    <timestep time="0.45">
        <edge id="-E0">
            <lane id="-E0_0"/>
            <lane id="-E0_1"/>
            <lane id="-E0_2">
                <vehicle id="vehicle1" pos="5.49" speed="1.70"/>
            </lane>
        </edge>
    </timestep>
    <timestep time="0.46">
        <edge id="-E0">
            <lane id="-E0_0"/>
            <lane id="-E0_1"/>
            <lane id="-E0_2">
                <vehicle id="vehicle1" pos="5.51" speed="1.74"/>
            </lane>
        </edge>
    </timestep>
    <timestep time="0.47">
        <edge id="-E0">
            <lane id="-E0_0"/>
            <lane id="-E0_1"/>
            <lane id="-E0_2">
                <vehicle id="vehicle1" pos="5.53" speed="1.77"/>
            </lane>
        </edge>
    </timestep>
    <timestep time="0.48">
        <edge id="-E0">
            <lane id="-E0_0"/>
            <lane id="-E0_1"/>
            <lane id="-E0_2">
                <vehicle id="vehicle1" pos="5.55" speed="1.81"/>
            </lane>
        </edge>
    </timestep>
    <timestep time="0.49">
        <edge id="-E0">
            <lane id="-E0_0"/>
            <lane id="-E0_1"/>
            <lane id="-E0_2">
                <vehicle id="vehicle1" pos="5.57" speed="1.85"/>
            </lane>
        </edge>
    </timestep>
    <timestep time="0.50">
        <edge id="-E0">
            <lane id="-E0_0"/>
            <lane id="-E0_1"/>
            <lane id="-E0_2">
                <vehicle id="vehicle1" pos="5.58" speed="1.88"/>
            </lane>
        </edge>
    </timestep>
    <timestep time="0.51">
        <edge id="-E0">
            <lane id="-E0_0"/>
            <lane id="-E0_1"/>
            <lane id="-E0_2">
                <vehicle id="vehicle1" pos="5.60" speed="1.92"/>
            </lane>
        </edge>
    </timestep>
    <timestep time="0.52">
        <edge id="-E0">
            <lane id="-E0_0"/>
            <lane id="-E0_1"/>
            <lane id="-E0_2">
                <vehicle id="vehicle1" pos="5.62" speed="1.95"/>
            </lane>
        </edge>
    </timestep>
    <timestep time="0.53">
        <edge id="-E0">
            <lane id="-E0_0"/>
            <lane id="-E0_1"/>
            <lane id="-E0_2">
                <vehicle id="vehicle1" pos="5.64" speed="1.98"/>
            </lane>
        </edge>
    </timestep>
    <timestep time="0.54">
        <edge id="-E0">
            <lane id="-E0_0"/>
            <lane id="-E0_1"/>
            <lane id="-E0_2">
                <vehicle id="vehicle1" pos="5.66" speed="2.02"/>
            </lane>
        </edge>
    </timestep>
    <timestep time="0.55">
        <edge id="-E0">
            <lane id="-E0_0"/>
            <lane id="-E0_1"/>
            <lane id="-E0_2">
                <vehicle id="vehicle1" pos="5.68" speed="2.06"/>
            </lane>
        </edge>
    </timestep>
    <timestep time="0.56">
        <edge id="-E0">
            <lane id="-E0_0"/>
            <lane id="-E0_1"/>
            <lane id="-E0_2">
                <vehicle id="vehicle1" pos="5.70" speed="2.09"/>
            </lane>
        </edge>
    </timestep>
    <timestep time="0.57">
        <edge id="-E0">
            <lane id="-E0_0"/>
            <lane id="-E0_1"/>
            <lane id="-E0_2">
                <vehicle id="vehicle1" pos="5.73" speed="2.12"/>
            </lane>
        </edge>
    </timestep>
    <timestep time="0.58">
        <edge id="-E0">
            <lane id="-E0_0"/>
            <lane id="-E0_1"/>
            <lane id="-E0_2">
                <vehicle id="vehicle1" pos="5.75" speed="2.16"/>
            </lane>
        </edge>
    </timestep>
    <timestep time="0.59">
        <edge id="-E0">
            <lane id="-E0_0"/>
            <lane id="-E0_1"/>
            <lane id="-E0_2">
                <vehicle id="vehicle1" pos="5.77" speed="2.20"/>
            </lane>
        </edge>
    </timestep>
    <timestep time="0.60">
        <edge id="-E0">
            <lane id="-E0_0"/>
            <lane id="-E0_1"/>
            <lane id="-E0_2">
                <vehicle id="vehicle1" pos="5.79" speed="2.24"/>
            </lane>
        </edge>
    </timestep>
    <timestep time="0.61">
        <edge id="-E0">
            <lane id="-E0_0"/>
            <lane id="-E0_1"/>
            <lane id="-E0_2">
                <vehicle id="vehicle1" pos="5.81" speed="2.26"/>
            </lane>
        </edge>
    </timestep>
    <timestep time="0.62">
        <edge id="-E0">
            <lane id="-E0_0"/>
            <lane id="-E0_1"/>
            <lane id="-E0_2">
                <vehicle id="vehicle1" pos="5.84" speed="2.30"/>
            </lane>
        </edge>
    </timestep>
    <timestep time="0.63">
        <edge id="-E0">
            <lane id="-E0_0"/>
            <lane id="-E0_1"/>
            <lane id="-E0_2">
                <vehicle id="vehicle1" pos="5.86" speed="2.33"/>
            </lane>
        </edge>
    </timestep>
    <timestep time="0.64">
        <edge id="-E0">
            <lane id="-E0_0"/>
            <lane id="-E0_1"/>
            <lane id="-E0_2">
                <vehicle id="vehicle1" pos="5.88" speed="2.36"/>
            </lane>
        </edge>
    </timestep>
    <timestep time="0.65">
        <edge id="-E0">
            <lane id="-E0_0"/>
            <lane id="-E0_1"/>
            <lane id="-E0_2">
                <vehicle id="vehicle1" pos="5.91" speed="2.40"/>
            </lane>
        </edge>
    </timestep>
    <timestep time="0.66">
        <edge id="-E0">
            <lane id="-E0_0"/>
            <lane id="-E0_1"/>
            <lane id="-E0_2">
                <vehicle id="vehicle1" pos="5.93" speed="2.43"/>
            </lane>
        </edge>
    </timestep>
    <timestep time="0.67">
        <edge id="-E0">
            <lane id="-E0_0"/>
            <lane id="-E0_1"/>
            <lane id="-E0_2">
                <vehicle id="vehicle1" pos="5.96" speed="2.47"/>
            </lane>
        </edge>
    </timestep>
    <timestep time="0.68">
        <edge id="-E0">
            <lane id="-E0_0"/>
            <lane id="-E0_1"/>
            <lane id="-E0_2">
                <vehicle id="vehicle1" pos="5.98" speed="2.50"/>
            </lane>
        </edge>
    </timestep>
    <timestep time="0.69">
        <edge id="-E0">
            <lane id="-E0_0"/>
            <lane id="-E0_1"/>
            <lane id="-E0_2">
                <vehicle id="vehicle1" pos="6.01" speed="2.53"/>
            </lane>
        </edge>
    </timestep>
    <timestep time="0.70">
        <edge id="-E0">
            <lane id="-E0_0"/>
            <lane id="-E0_1"/>
            <lane id="-E0_2">
                <vehicle id="vehicle1" pos="6.03" speed="2.56"/>
            </lane>
        </edge>
    </timestep>
    <timestep time="0.71">
        <edge id="-E0">
            <lane id="-E0_0"/>
            <lane id="-E0_1"/>
            <lane id="-E0_2">
                <vehicle id="vehicle1" pos="6.06" speed="2.60"/>
            </lane>
        </edge>
    </timestep>
    <timestep time="0.72">
        <edge id="-E0">
            <lane id="-E0_0"/>
            <lane id="-E0_1"/>
            <lane id="-E0_2">
                <vehicle id="vehicle1" pos="6.09" speed="2.64"/>
            </lane>
        </edge>
    </timestep>
    <timestep time="0.73">
        <edge id="-E0">
            <lane id="-E0_0"/>
            <lane id="-E0_1"/>
            <lane id="-E0_2">
                <vehicle id="vehicle1" pos="6.11" speed="2.67"/>
            </lane>
        </edge>
    </timestep>
    <timestep time="0.74">
        <edge id="-E0">
            <lane id="-E0_0"/>
            <lane id="-E0_1"/>
            <lane id="-E0_2">
                <vehicle id="vehicle1" pos="6.14" speed="2.71"/>
            </lane>
        </edge>
    </timestep>
    <timestep time="0.75">
        <edge id="-E0">
            <lane id="-E0_0"/>
            <lane id="-E0_1"/>
            <lane id="-E0_2">
                <vehicle id="vehicle1" pos="6.17" speed="2.75"/>
            </lane>
        </edge>
    </timestep>
    <timestep time="0.76">
        <edge id="-E0">
            <lane id="-E0_0"/>
            <lane id="-E0_1"/>
            <lane id="-E0_2">
                <vehicle id="vehicle1" pos="6.19" speed="2.79"/>
            </lane>
        </edge>
    </timestep>
    <timestep time="0.77">
        <edge id="-E0">
            <lane id="-E0_0"/>
            <lane id="-E0_1"/>
            <lane id="-E0_2">
                <vehicle id="vehicle1" pos="6.22" speed="2.82"/>
            </lane>
        </edge>
    </timestep>
    <timestep time="0.78">
        <edge id="-E0">
            <lane id="-E0_0"/>
            <lane id="-E0_1"/>
            <lane id="-E0_2">
                <vehicle id="vehicle1" pos="6.25" speed="2.86"/>
            </lane>
        </edge>
    </timestep>
    <timestep time="0.79">
        <edge id="-E0">
            <lane id="-E0_0"/>
            <lane id="-E0_1"/>
            <lane id="-E0_2">
                <vehicle id="vehicle1" pos="6.28" speed="2.89"/>
            </lane>
        </edge>
    </timestep>
    <timestep time="0.80">
        <edge id="-E0">
            <lane id="-E0_0"/>
            <lane id="-E0_1"/>
            <lane id="-E0_2">
                <vehicle id="vehicle1" pos="6.31" speed="2.92"/>
            </lane>
        </edge>
    </timestep>
    <timestep time="0.81">
        <edge id="-E0">
            <lane id="-E0_0"/>
            <lane id="-E0_1"/>
            <lane id="-E0_2">
                <vehicle id="vehicle1" pos="6.34" speed="2.95"/>
            </lane>
        </edge>
    </timestep>
    <timestep time="0.82">
        <edge id="-E0">
            <lane id="-E0_0"/>
            <lane id="-E0_1"/>
            <lane id="-E0_2">
                <vehicle id="vehicle1" pos="6.37" speed="2.99"/>
            </lane>
        </edge>
    </timestep>
    <timestep time="0.83">
        <edge id="-E0">
            <lane id="-E0_0"/>
            <lane id="-E0_1"/>
            <lane id="-E0_2">
                <vehicle id="vehicle1" pos="6.40" speed="3.02"/>
            </lane>
        </edge>
    </timestep>
    <timestep time="0.84">
        <edge id="-E0">
            <lane id="-E0_0"/>
            <lane id="-E0_1"/>
            <lane id="-E0_2">
                <vehicle id="vehicle1" pos="6.43" speed="3.05"/>
            </lane>
        </edge>
    </timestep>
    <timestep time="0.85">
        <edge id="-E0">
            <lane id="-E0_0"/>
            <lane id="-E0_1"/>
            <lane id="-E0_2">
                <vehicle id="vehicle1" pos="6.46" speed="3.09"/>
            </lane>
        </edge>
    </timestep>
    <timestep time="0.86">
        <edge id="-E0">
            <lane id="-E0_0"/>
            <lane id="-E0_1"/>
            <lane id="-E0_2">
                <vehicle id="vehicle1" pos="6.49" speed="3.12"/>
            </lane>
        </edge>
    </timestep>
    <timestep time="0.87">
        <edge id="-E0">
            <lane id="-E0_0"/>
            <lane id="-E0_1"/>
            <lane id="-E0_2">
                <vehicle id="vehicle1" pos="6.52" speed="3.16"/>
            </lane>
        </edge>
    </timestep>
    <timestep time="0.88">
        <edge id="-E0">
            <lane id="-E0_0"/>
            <lane id="-E0_1"/>
            <lane id="-E0_2">
                <vehicle id="vehicle1" pos="6.55" speed="3.19"/>
            </lane>
        </edge>
    </timestep>
    <timestep time="0.89">
        <edge id="-E0">
            <lane id="-E0_0"/>
            <lane id="-E0_1"/>
            <lane id="-E0_2">
                <vehicle id="vehicle1" pos="6.59" speed="3.21"/>
            </lane>
        </edge>
    </timestep>
    <timestep time="0.90">
        <edge id="-E0">
            <lane id="-E0_0"/>
            <lane id="-E0_1"/>
            <lane id="-E0_2">
                <vehicle id="vehicle1" pos="6.62" speed="3.24"/>
            </lane>
        </edge>
    </timestep>
    <timestep time="0.91">
        <edge id="-E0">
            <lane id="-E0_0"/>
            <lane id="-E0_1"/>
            <lane id="-E0_2">
                <vehicle id="vehicle1" pos="6.65" speed="3.27"/>
            </lane>
        </edge>
    </timestep>
    <timestep time="0.92">
        <edge id="-E0">
            <lane id="-E0_0"/>
            <lane id="-E0_1"/>
            <lane id="-E0_2">
                <vehicle id="vehicle1" pos="6.69" speed="3.30"/>
            </lane>
        </edge>
    </timestep>
    <timestep time="0.93">
        <edge id="-E0">
            <lane id="-E0_0"/>
            <lane id="-E0_1"/>
            <lane id="-E0_2">
                <vehicle id="vehicle1" pos="6.72" speed="3.33"/>
            </lane>
        </edge>
    </timestep>
    <timestep time="0.94">
        <edge id="-E0">
            <lane id="-E0_0"/>
            <lane id="-E0_1"/>
            <lane id="-E0_2">
                <vehicle id="vehicle1" pos="6.75" speed="3.36"/>
            </lane>
        </edge>
    </timestep>
    <timestep time="0.95">
        <edge id="-E0">
            <lane id="-E0_0"/>
            <lane id="-E0_1"/>
            <lane id="-E0_2">
                <vehicle id="vehicle1" pos="6.79" speed="3.39"/>
            </lane>
        </edge>
    </timestep>
    <timestep time="0.96">
        <edge id="-E0">
            <lane id="-E0_0"/>
            <lane id="-E0_1"/>
            <lane id="-E0_2">
                <vehicle id="vehicle1" pos="6.82" speed="3.42"/>
            </lane>
        </edge>
    </timestep>
    <timestep time="0.97">
        <edge id="-E0">
            <lane id="-E0_0"/>
            <lane id="-E0_1"/>
            <lane id="-E0_2">
                <vehicle id="vehicle1" pos="6.85" speed="3.45"/>
            </lane>
        </edge>
    </timestep>
    <timestep time="0.98">
        <edge id="-E0">
            <lane id="-E0_0"/>
            <lane id="-E0_1"/>
            <lane id="-E0_2">
                <vehicle id="vehicle1" pos="6.89" speed="3.47"/>
            </lane>
        </edge>
    </timestep>
    <timestep time="0.99">
        <edge id="-E0">
            <lane id="-E0_0"/>
            <lane id="-E0_1"/>
            <lane id="-E0_2">
                <vehicle id="vehicle1" pos="6.92" speed="3.50"/>
            </lane>
        </edge>
    </timestep>
    <timestep time="1.00">
        <edge id="-E0">
            <lane id="-E0_0"/>
            <lane id="-E0_1"/>
            <lane id="-E0_2">
                <vehicle id="vehicle1" pos="6.96" speed="3.54"/>
            </lane>
        </edge>
    </timestep>
    <timestep time="1.01">
        <edge id="-E0">
            <lane id="-E0_0"/>
            <lane id="-E0_1"/>
            <lane id="-E0_2">
                <vehicle id="vehicle1" pos="7.00" speed="3.57"/>
            </lane>
        </edge>
    </timestep>
    <timestep time="1.02">
        <edge id="-E0">
            <lane id="-E0_0"/>
            <lane id="-E0_1"/>
            <lane id="-E0_2">
                <vehicle id="vehicle1" pos="7.03" speed="3.60"/>
            </lane>
        </edge>
    </timestep>
    <timestep time="1.03">
        <edge id="-E0">
            <lane id="-E0_0"/>
            <lane id="-E0_1"/>
            <lane id="-E0_2">
                <vehicle id="vehicle1" pos="7.07" speed="3.63"/>
            </lane>
        </edge>
    </timestep>
    <timestep time="1.04">
        <edge id="-E0">
            <lane id="-E0_0"/>
            <lane id="-E0_1"/>
            <lane id="-E0_2">
                <vehicle id="vehicle1" pos="7.10" speed="3.67"/>
            </lane>
        </edge>
    </timestep>
    <timestep time="1.05">
        <edge id="-E0">
            <lane id="-E0_0"/>
            <lane id="-E0_1"/>
            <lane id="-E0_2">
                <vehicle id="vehicle1" pos="7.14" speed="3.70"/>
            </lane>
        </edge>
    </timestep>
    <timestep time="1.06">
        <edge id="-E0">
            <lane id="-E0_0"/>
            <lane id="-E0_1"/>
            <lane id="-E0_2">
                <vehicle id="vehicle1" pos="7.18" speed="3.73"/>
            </lane>
        </edge>
    </timestep>
    <timestep time="1.07">
        <edge id="-E0">
            <lane id="-E0_0"/>
            <lane id="-E0_1"/>
            <lane id="-E0_2">
                <vehicle id="vehicle1" pos="7.22" speed="3.76"/>
            </lane>
        </edge>
    </timestep>
    <timestep time="1.08">
        <edge id="-E0">
            <lane id="-E0_0"/>
            <lane id="-E0_1"/>
            <lane id="-E0_2">
                <vehicle id="vehicle1" pos="7.25" speed="3.79"/>
            </lane>
        </edge>
    </timestep>
    <timestep time="1.09">
        <edge id="-E0">
            <lane id="-E0_0"/>
            <lane id="-E0_1"/>
            <lane id="-E0_2">
                <vehicle id="vehicle1" pos="7.29" speed="3.83"/>
            </lane>
        </edge>
    </timestep>
    <timestep time="1.10">
        <edge id="-E0">
            <lane id="-E0_0"/>
            <lane id="-E0_1"/>
            <lane id="-E0_2">
                <vehicle id="vehicle1" pos="7.33" speed="3.86"/>
            </lane>
        </edge>
    </timestep>
    <timestep time="1.11">
        <edge id="-E0">
            <lane id="-E0_0"/>
            <lane id="-E0_1"/>
            <lane id="-E0_2">
                <vehicle id="vehicle1" pos="7.37" speed="3.89"/>
            </lane>
        </edge>
    </timestep>